141439
  -OEChem-02042123532D

 15 14  0     0  0  0  0  0  0999 V2000
    5.1350   -0.9050    0.0000 O   0  0  0  0  0  0  0  0  0  0  0  0
    7.7331    0.5950    0.0000 O   0  5  0  0  0  0  0  0  0  0  0  0
    6.8671   -0.9050    0.0000 O   0  0  0  0  0  0  0  0  0  0  0  0
    6.0010    0.5950    0.0000 N   0  0  0  0  0  0  0  0  0  0  0  0
    4.2690    0.5950    0.0000 N   0  0  0  0  0  0  0  0  0  0  0  0
    6.8671    0.0950    0.0000 N   0  3  0  0  0  0  0  0  0  0  0  0
    2.5369    0.5950    0.0000 N   0  0  0  0  0  0  0  0  0  0  0  0
    3.4030   -0.9050    0.0000 N   0  0  0  0  0  0  0  0  0  0  0  0
    5.1350    0.0950    0.0000 C   0  0  0  0  0  0  0  0  0  0  0  0
    3.4030    0.0950    0.0000 C   0  0  0  0  0  0  0  0  0  0  0  0
    6.0010    1.2150    0.0000 H   0  0  0  0  0  0  0  0  0  0  0  0
    2.0000    0.2850    0.0000 H   0  0  0  0  0  0  0  0  0  0  0  0
    2.5369    1.2150    0.0000 H   0  0  0  0  0  0  0  0  0  0  0  0
    2.8660   -1.2150    0.0000 H   0  0  0  0  0  0  0  0  0  0  0  0
    3.9399   -1.2150    0.0000 H   0  0  0  0  0  0  0  0  0  0  0  0
  1  9  2  0  0  0  0
  2  6  1  0  0  0  0
  3  6  2  0  0  0  0
  4  6  1  0  0  0  0
  4  9  1  0  0  0  0
  4 11  1  0  0  0  0
  5  9  1  0  0  0  0
  5 10  2  0  0  0  0
  7 10  1  0  0  0  0
  7 12  1  0  0  0  0
  7 13  1  0  0  0  0
  8 10  1  0  0  0  0
  8 14  1  0  0  0  0
  8 15  1  0  0  0  0
M  CHG  2   2  -1   6   1
M  END
> <PUBCHEM_COMPOUND_CID>
141439

> <PUBCHEM_COMPOUND_CANONICALIZED>
1

> <PUBCHEM_CACTVS_COMPLEXITY>
176

> <PUBCHEM_CACTVS_HBOND_ACCEPTOR>
3

> <PUBCHEM_CACTVS_HBOND_DONOR>
3

> <PUBCHEM_CACTVS_ROTATABLE_BOND>
0

> <PUBCHEM_CACTVS_SUBSKEYS>
AAADcYBDsAAAAAAAAAAAAAAAAAAAAAAAAAAAAAAAAAAAAAAAAAAABgAcAAAAAAAAAAABAAJiQAApAAAANQAAAAEAAAAGAAAAAAAAAAAAAAAAAAAAAAAAAAAAAAAAAAAAAAAAAAAAAAAAAAAAAAAAAAAAAA==

> <PUBCHEM_IUPAC_OPENEYE_NAME>
1-(diaminomethylene)-3-nitro-urea

> <PUBCHEM_IUPAC_CAS_NAME>
1-(diaminomethylidene)-3-nitrourea

> <PUBCHEM_IUPAC_NAME_MARKUP>
1-(diaminomethylidene)-3-nitrourea

> <PUBCHEM_IUPAC_NAME>
1-(diaminomethylidene)-3-nitrourea

> <PUBCHEM_IUPAC_SYSTEMATIC_NAME>
1-[bis(azanyl)methylidene]-3-nitro-urea

> <PUBCHEM_IUPAC_TRADITIONAL_NAME>
1-(diaminomethylene)-3-nitro-urea

> <PUBCHEM_IUPAC_INCHI>
InChI=1S/C2H5N5O3/c3-1(4)5-2(8)6-7(9)10/h(H5,3,4,5,6,8)

> <PUBCHEM_IUPAC_INCHIKEY>
QHNCQQJOCQZXFW-UHFFFAOYSA-N

> <PUBCHEM_XLOGP3_AA>
-0.8

> <PUBCHEM_EXACT_MASS>
147.039239

> <PUBCHEM_MOLECULAR_FORMULA>
C2H5N5O3

> <PUBCHEM_MOLECULAR_WEIGHT>
147.09

> <PUBCHEM_OPENEYE_CAN_SMILES>
C(=NC(=O)N[N+](=O)[O-])(N)N

> <PUBCHEM_OPENEYE_ISO_SMILES>
C(=NC(=O)N[N+](=O)[O-])(N)N

> <PUBCHEM_CACTVS_TPSA>
139

> <PUBCHEM_MONOISOTOPIC_WEIGHT>
147.039239

> <PUBCHEM_TOTAL_CHARGE>
0

> <PUBCHEM_HEAVY_ATOM_COUNT>
10

> <PUBCHEM_ATOM_DEF_STEREO_COUNT>
0

> <PUBCHEM_ATOM_UDEF_STEREO_COUNT>
0

> <PUBCHEM_BOND_DEF_STEREO_COUNT>
0

> <PUBCHEM_BOND_UDEF_STEREO_COUNT>
0

> <PUBCHEM_ISOTOPIC_ATOM_COUNT>
0

> <PUBCHEM_COMPONENT_COUNT>
1

> <PUBCHEM_CACTVS_TAUTO_COUNT>
-1

> <PUBCHEM_COORDINATE_TYPE>
1
5
255

$$$$
