6332290
  -OEChem-02042123532D

 18 17  0     0  0  0  0  0  0999 V2000
    2.5369    0.2500    0.0000 O   0  0  0  0  0  0  0  0  0  0  0  0
    8.5991   -0.2500    0.0000 O   0  0  0  0  0  0  0  0  0  0  0  0
    3.4030   -1.2500    0.0000 O   0  0  0  0  0  0  0  0  0  0  0  0
    7.7331    1.2500    0.0000 O   0  0  0  0  0  0  0  0  0  0  0  0
    4.2690    0.2500    0.0000 N   0  0  0  0  0  0  0  0  0  0  0  0
    6.8671   -0.2500    0.0000 N   0  0  0  0  0  0  0  0  0  0  0  0
    3.4030   -0.2500    0.0000 N   0  3  0  0  0  0  0  0  0  0  0  0
    7.7331    0.2500    0.0000 N   0  3  0  0  0  0  0  0  0  0  0  0
    5.1350   -0.2500    0.0000 C   0  0  0  0  0  0  0  0  0  0  0  0
    6.0010    0.2500    0.0000 C   0  0  0  0  0  0  0  0  0  0  0  0
    4.7365   -0.7249    0.0000 H   0  0  0  0  0  0  0  0  0  0  0  0
    5.5335   -0.7249    0.0000 H   0  0  0  0  0  0  0  0  0  0  0  0
    6.3996    0.7249    0.0000 H   0  0  0  0  0  0  0  0  0  0  0  0
    5.6025    0.7249    0.0000 H   0  0  0  0  0  0  0  0  0  0  0  0
    4.2690    0.8700    0.0000 H   0  0  0  0  0  0  0  0  0  0  0  0
    6.8671   -0.8700    0.0000 H   0  0  0  0  0  0  0  0  0  0  0  0
    2.0000   -0.0600    0.0000 H   0  0  0  0  0  0  0  0  0  0  0  0
    9.1360    0.0600    0.0000 H   0  0  0  0  0  0  0  0  0  0  0  0
  1  7  1  0  0  0  0
  1 17  1  0  0  0  0
  2  8  1  0  0  0  0
  2 18  1  0  0  0  0
  3  7  2  0  0  0  0
  4  8  2  0  0  0  0
  5  7  1  0  0  0  0
  5  9  1  0  0  0  0
  5 15  1  0  0  0  0
  6  8  1  0  0  0  0
  6 10  1  0  0  0  0
  6 16  1  0  0  0  0
  9 10  1  0  0  0  0
  9 11  1  0  0  0  0
  9 12  1  0  0  0  0
 10 13  1  0  0  0  0
 10 14  1  0  0  0  0
M  CHG  2   7   1   8   1
M  END
> <PUBCHEM_COMPOUND_CID>
6332290

> <PUBCHEM_COMPOUND_CANONICALIZED>
1

> <PUBCHEM_CACTVS_COMPLEXITY>
119

> <PUBCHEM_CACTVS_HBOND_ACCEPTOR>
6

> <PUBCHEM_CACTVS_HBOND_DONOR>
4

> <PUBCHEM_CACTVS_ROTATABLE_BOND>
5

> <PUBCHEM_CACTVS_SUBSKEYS>
AAADccBDuAAAAAAAAAAAAAAAAAAAAAAAAAAAAAAAAAAAAAAAAAAAHAAcCAAAAADBAAQAAABiQAABAAAAAQAAAAAAAAAQAIAAAAAAQAAAAAAAAAAAEAAAAAAAAAAAAAAAAAAAAAAAAAAAAAAAAAAAAAAAAA==

> <PUBCHEM_IUPAC_OPENEYE_NAME>
hydroxy-[2-[[hydroxy(oxo)ammonio]amino]ethylamino]-oxo-ammonium

> <PUBCHEM_IUPAC_CAS_NAME>
hydroxy-[2-[[hydroxy(oxo)ammonio]amino]ethylamino]-oxoammonium

> <PUBCHEM_IUPAC_NAME_MARKUP>
hydroxy-[2-[[hydroxy(oxo)azaniumyl]amino]ethylamino]-oxoazanium

> <PUBCHEM_IUPAC_NAME>
hydroxy-[2-[[hydroxy(oxo)azaniumyl]amino]ethylamino]-oxoazanium

> <PUBCHEM_IUPAC_SYSTEMATIC_NAME>
oxidanyl-oxidanylidene-[2-[[oxidanyl(oxidanylidene)azaniumyl]amino]ethylamino]azanium

> <PUBCHEM_IUPAC_TRADITIONAL_NAME>
hydroxy-[2-[[hydroxy(keto)ammonio]amino]ethylamino]-keto-ammonium

> <PUBCHEM_IUPAC_INCHI>
InChI=1S/C2H8N4O4/c7-5(8)3-1-2-4-6(9)10/h3-4H,1-2H2,(H,7,8)(H,9,10)/q+2

> <PUBCHEM_IUPAC_INCHIKEY>
WTTIRHRYGZGLJD-UHFFFAOYSA-N

> <PUBCHEM_XLOGP3_AA>
-0.1

> <PUBCHEM_EXACT_MASS>
152.054555

> <PUBCHEM_MOLECULAR_FORMULA>
C2H8N4O4+2

> <PUBCHEM_MOLECULAR_WEIGHT>
152.11

> <PUBCHEM_OPENEYE_CAN_SMILES>
C(CN[N+](=O)O)N[N+](=O)O

> <PUBCHEM_OPENEYE_ISO_SMILES>
C(CN[N+](=O)O)N[N+](=O)O

> <PUBCHEM_CACTVS_TPSA>
105

> <PUBCHEM_MONOISOTOPIC_WEIGHT>
152.054555

> <PUBCHEM_TOTAL_CHARGE>
2

> <PUBCHEM_HEAVY_ATOM_COUNT>
10

> <PUBCHEM_ATOM_DEF_STEREO_COUNT>
0

> <PUBCHEM_ATOM_UDEF_STEREO_COUNT>
0

> <PUBCHEM_BOND_DEF_STEREO_COUNT>
0

> <PUBCHEM_BOND_UDEF_STEREO_COUNT>
0

> <PUBCHEM_ISOTOPIC_ATOM_COUNT>
0

> <PUBCHEM_COMPONENT_COUNT>
1

> <PUBCHEM_CACTVS_TAUTO_COUNT>
-1

> <PUBCHEM_COORDINATE_TYPE>
1
5
255

$$$$
