8518
  -OEChem-02042121392D

 21 21  0     0  0  0  0  0  0999 V2000
    5.4641    2.1900    0.0000 O   0  0  0  0  0  0  0  0  0  0  0  0
    3.7320    2.1900    0.0000 O   0  0  0  0  0  0  0  0  0  0  0  0
    7.1962    0.1900    0.0000 O   0  5  0  0  0  0  0  0  0  0  0  0
    2.0000    0.1900    0.0000 O   0  5  0  0  0  0  0  0  0  0  0  0
    6.3301    1.6900    0.0000 O   0  0  0  0  0  0  0  0  0  0  0  0
    2.8660    1.6900    0.0000 O   0  0  0  0  0  0  0  0  0  0  0  0
    3.7320   -2.8100    0.0000 O   0  5  0  0  0  0  0  0  0  0  0  0
    5.4641   -2.8100    0.0000 O   0  0  0  0  0  0  0  0  0  0  0  0
    6.3301    0.6900    0.0000 N   0  3  0  0  0  0  0  0  0  0  0  0
    2.8660    0.6900    0.0000 N   0  3  0  0  0  0  0  0  0  0  0  0
    4.5981   -2.3100    0.0000 N   0  3  0  0  0  0  0  0  0  0  0  0
    4.5981    0.6900    0.0000 C   0  0  0  0  0  0  0  0  0  0  0  0
    5.4641    0.1900    0.0000 C   0  0  0  0  0  0  0  0  0  0  0  0
    3.7320    0.1900    0.0000 C   0  0  0  0  0  0  0  0  0  0  0  0
    4.5981   -1.3100    0.0000 C   0  0  0  0  0  0  0  0  0  0  0  0
    5.4641   -0.8100    0.0000 C   0  0  0  0  0  0  0  0  0  0  0  0
    3.7320   -0.8100    0.0000 C   0  0  0  0  0  0  0  0  0  0  0  0
    4.5981    1.6900    0.0000 C   0  0  0  0  0  0  0  0  0  0  0  0
    6.0010   -1.1200    0.0000 H   0  0  0  0  0  0  0  0  0  0  0  0
    3.1951   -1.1200    0.0000 H   0  0  0  0  0  0  0  0  0  0  0  0
    5.4641    2.8100    0.0000 H   0  0  0  0  0  0  0  0  0  0  0  0
  1 18  1  0  0  0  0
  1 21  1  0  0  0  0
  2 18  2  0  0  0  0
  3  9  1  0  0  0  0
  4 10  1  0  0  0  0
  5  9  2  0  0  0  0
  6 10  2  0  0  0  0
  7 11  1  0  0  0  0
  8 11  2  0  0  0  0
  9 13  1  0  0  0  0
 10 14  1  0  0  0  0
 11 15  1  0  0  0  0
 12 13  2  0  0  0  0
 12 14  1  0  0  0  0
 12 18  1  0  0  0  0
 13 16  1  0  0  0  0
 14 17  2  0  0  0  0
 15 16  2  0  0  0  0
 15 17  1  0  0  0  0
 16 19  1  0  0  0  0
 17 20  1  0  0  0  0
M  CHG  6   3  -1   4  -1   7  -1   9   1  10   1  11   1
M  END
> <PUBCHEM_COMPOUND_CID>
8518

> <PUBCHEM_COMPOUND_CANONICALIZED>
1

> <PUBCHEM_CACTVS_COMPLEXITY>
369

> <PUBCHEM_CACTVS_HBOND_ACCEPTOR>
8

> <PUBCHEM_CACTVS_HBOND_DONOR>
1

> <PUBCHEM_CACTVS_ROTATABLE_BOND>
1

> <PUBCHEM_CACTVS_SUBSKEYS>
AAADcQBjPAAAAAAAAAAAAAAAAAAAAAAAAAAwAAAAAAAAAAABAAAAHgAECAAADAiBmAAwyIAQQgCJAiTSSwCCAAAkAgAgiAEAbMoIJjqA1dGAcYBmwAEI2UeY2SGeCAAAAAQCAAAQAAAACAQAAAAAAAAAAA==

> <PUBCHEM_IUPAC_OPENEYE_NAME>
2,4,6-trinitrobenzoic acid

> <PUBCHEM_IUPAC_CAS_NAME>
2,4,6-trinitrobenzoic acid

> <PUBCHEM_IUPAC_NAME_MARKUP>
2,4,6-trinitrobenzoic acid

> <PUBCHEM_IUPAC_NAME>
2,4,6-trinitrobenzoic acid

> <PUBCHEM_IUPAC_SYSTEMATIC_NAME>
2,4,6-trinitrobenzoic acid

> <PUBCHEM_IUPAC_TRADITIONAL_NAME>
2,4,6-trinitrobenzoic acid

> <PUBCHEM_IUPAC_INCHI>
InChI=1S/C7H3N3O8/c11-7(12)6-4(9(15)16)1-3(8(13)14)2-5(6)10(17)18/h1-2H,(H,11,12)

> <PUBCHEM_IUPAC_INCHIKEY>
KAQBNBSMMVTKRN-UHFFFAOYSA-N

> <PUBCHEM_XLOGP3>
0.2

> <PUBCHEM_EXACT_MASS>
256.992014

> <PUBCHEM_MOLECULAR_FORMULA>
C7H3N3O8

> <PUBCHEM_MOLECULAR_WEIGHT>
257.11

> <PUBCHEM_OPENEYE_CAN_SMILES>
C1=C(C=C(C(=C1[N+](=O)[O-])C(=O)O)[N+](=O)[O-])[N+](=O)[O-]

> <PUBCHEM_OPENEYE_ISO_SMILES>
C1=C(C=C(C(=C1[N+](=O)[O-])C(=O)O)[N+](=O)[O-])[N+](=O)[O-]

> <PUBCHEM_CACTVS_TPSA>
175

> <PUBCHEM_MONOISOTOPIC_WEIGHT>
256.992014

> <PUBCHEM_TOTAL_CHARGE>
0

> <PUBCHEM_HEAVY_ATOM_COUNT>
18

> <PUBCHEM_ATOM_DEF_STEREO_COUNT>
0

> <PUBCHEM_ATOM_UDEF_STEREO_COUNT>
0

> <PUBCHEM_BOND_DEF_STEREO_COUNT>
0

> <PUBCHEM_BOND_UDEF_STEREO_COUNT>
0

> <PUBCHEM_ISOTOPIC_ATOM_COUNT>
0

> <PUBCHEM_COMPONENT_COUNT>
1

> <PUBCHEM_CACTVS_TAUTO_COUNT>
-1

> <PUBCHEM_COORDINATE_TYPE>
1
5
255

> <PUBCHEM_BONDANNOTATIONS>
12  13  8
12  14  8
13  16  8
14  17  8
15  16  8
15  17  8

$$$$
